VARIABLES="x","y","z","U","V","W","T","p","rho","Cp","Cf","Yplus","Cprms","utau"
zone T="   380001T" i=   17 j=   21
 DATAPACKING=BLOCK
 VARLOCATION=([4-14]=CELLCENTERED)
  0.203088050700000       0.199074735300000       0.195066625500000     
  0.191062686800000       0.187062123800000       0.183064246400000     
  0.179068489500000       0.175074340700000       0.171081316800000     
  0.167088933600000       0.163096672000000       0.159103938900000     
  0.155109985200000       0.151113794400000       0.147113813200000     
  0.143107338700000       0.139098647300000       0.203208622300000     
  0.199021185700000       0.194911942300000       0.190811180200000     
  0.186709793300000       0.182606547800000       0.178501285400000     
  0.174394086600000       0.170285271000000       0.166174949800000     
  0.162063100700000       0.157948802100000       0.153828270300000     
  0.149744977600000       0.145673677200000       0.141634909000000     
  0.137826722900000       0.202951310000000       0.198687895000000     
  0.194473850200000       0.190261751200000       0.186045094900000     
  0.181823203800000       0.177596617200000       0.173366160200000     
  0.169133140600000       0.164898266100000       0.160662279600000     
  0.156425252900000       0.152188080600000       0.148028174000000     
  0.143888806000000       0.139773813800000       0.135734380300000     
  0.202479608000000       0.198164109800000       0.193852906300000     
  0.189535448400000       0.185210188000000       0.180877316600000     
  0.176538277000000       0.172194742500000       0.167849179300000     
  0.163502903600000       0.159157941700000       0.154816770200000     
  0.150486182400000       0.146269319300000       0.142079943100000     
  0.137913501600000       0.133764406700000       0.202006251000000     
  0.197618760600000       0.193218521400000       0.188807565200000     
  0.184386642700000       0.179956570300000       0.175519870900000     
  0.171079090600000       0.166638033500000       0.162198586300000     
  0.157764505200000       0.153341200400000       0.148940766000000     
  0.144686321300000       0.140465325200000       0.136271349200000     
  0.132094232400000       0.201583892600000       0.197116678500000     
  0.192634120400000       0.188138681500000       0.183631980700000     
  0.179115276900000       0.174592332500000       0.170066567900000     
  0.165543269200000       0.161024789200000       0.156516882200000     
  0.152027872200000       0.147574200400000       0.143294916000000     
  0.139053984400000       0.134844004100000       0.130655055000000     
  0.201202493700000       0.196660410800000       0.192101962900000     
  0.187529124200000       0.182944378700000       0.178349300900000     
  0.173749092800000       0.169147993500000       0.164552903500000     
  0.159966469900000       0.155396557100000       0.150854153800000     
  0.146359140700000       0.142063644500000       0.137810503100000     
  0.133591484400000       0.129396920500000       0.200854526200000     
  0.196243055300000       0.191614222800000       0.186969823700000     
  0.182313431900000       0.177646806900000       0.172976775100000     
  0.168308319200000       0.163650046800000       0.159004665700000     
  0.154382187200000       0.149795918300000       0.145268432700000     
  0.140962838300000       0.136702899500000       0.132479573700000     
  0.128283113900000       0.200534173800000       0.195858013800000     
  0.191163397800000       0.186452292300000       0.181729622000000     
  0.176997141600000       0.172263512000000       0.167534346400000     
  0.162820025800000       0.158123076500000       0.153455625300000     
  0.148832971700000       0.144279762700000       0.139968555100000     
  0.135705711000000       0.131481456800000       0.127285804400000     
  0.200236959100000       0.195501580300000       0.190745117700000     
  0.185971325000000       0.181186854900000       0.176393261200000     
  0.171601235500000       0.166816892500000       0.162052423400000     
  0.157309911300000       0.152603567500000       0.147950364600000     
  0.143376539200000       0.139062919400000       0.134799892700000     
  0.130577011000000       0.126383874500000       0.199969300900000     
  0.195174916400000       0.190359102400000       0.185525589400000     
  0.180682752200000       0.175831676300000       0.170985291200000     
  0.166150067500000       0.161340016700000       0.156556566500000     
  0.151815938700000       0.147136523800000       0.142545741000000     
  0.138231812200000       0.133970297300000       0.129750165300000     
  0.125560574500000       0.199725309300000       0.194873129100000     
  0.190000198100000       0.185109528400000       0.180211308200000     
  0.175305895000000       0.170408651300000       0.165526248800000     
  0.160674510200000       0.155853999100000       0.151082898000000     
  0.146380777500000       0.141775918600000       0.137463249300000     
  0.133204477600000       0.128988063200000       0.124802649500000     
  0.199494477000000       0.194588132500000       0.189660543700000     
  0.184715224800000       0.179764492400000       0.174807729200000     
  0.169862922500000       0.164936791400000       0.160046930100000     
  0.155192899000000       0.150394755000000       0.145673066400000     
  0.141056690700000       0.136746733000000       0.132491854700000     
  0.128280103900000       0.124099642800000       0.199274887500000     
  0.194316561400000       0.189336399500000       0.184338674600000     
  0.179338010500000       0.174332577400000       0.169343157400000     
  0.164376359600000       0.159451498400000       0.154567008100000     
  0.149744758000000       0.145006144200000       0.140380371300000     
  0.136074295000000       0.131824226300000       0.127617887000000     
  0.123442929100000       0.199064925400000       0.194056188900000     
  0.189025197500000       0.183976983600000       0.178928612000000     
  0.173876818500000       0.168845328800000       0.163840501300000     
  0.158883290400000       0.153970958200000       0.149127087300000     
  0.144373774700000       0.139740362400000       0.135439124800000     
  0.131194601700000       0.126994279300000       0.122825354800000     
  0.198863233300000       0.193805477100000       0.188725153000000     
  0.183628119100000       0.178533979600000       0.173437844400000     
  0.168366505500000       0.163325932700000       0.158338635400000     
  0.153400679100000       0.148537277500000       0.143771108300000     
  0.139131480600000       0.134835820400000       0.130597399000000     
  0.126403545200000       0.122241006900000       0.198668575800000     
  0.193562824200000       0.188434405500000       0.183289956500000     
  0.178151690900000       0.173012939300000       0.167903649400000     
  0.162829291200000       0.157813817200000       0.152852139900000     
  0.147970988400000       0.143193532300000       0.138548891300000     
  0.134259429800000       0.130027574200000       0.125840571300000     
  0.121684787800000       0.198479909800000       0.193327069100000     
  0.188151601900000       0.182960951600000       0.177779973900000     
  0.172600109100000       0.167454517300000       0.162348065000000     
  0.157306035800000       0.152322251400000       0.147424853200000     
  0.142637417100000       0.137988746600000       0.133705970000000     
  0.129481039500000       0.125301183600000       0.121152407700000     
  0.198296294700000       0.193096966000000       0.187875284700000     
  0.182639432500000       0.177416908300000       0.172197203900000     
  0.167016702800000       0.161879599800000       0.156812372600000     
  0.151807873700000       0.146895521300000       0.142099234700000     
  0.137447385000000       0.133171718100000       0.128954032800000     
  0.124781593700000       0.120640119000000       0.198116880000000     
  0.192871549500000       0.187604320700000       0.182324104000000     
  0.177061003200000       0.171802550500000       0.166588327200000     
  0.161421799100000       0.156330506200000       0.151306469500000     
  0.146380254900000       0.141576062300000       0.136921738400000     
  0.132653525200000       0.128443349300000       0.124278557900000     
  0.120144628400000       0.197940866200000       0.192649674500000     
  0.187337359700000       0.182013419900000       0.176710486900000     
  0.171414178900000       0.166167200400000       0.160972269600000     
  0.155857836500000       0.150815273100000       0.145876136200000     
  0.141064860200000       0.136408685500000       0.132148241300000     
  0.127945829400000       0.123788926600000       0.119662973000000     
  3.244945671000000E-002  3.198936487000000E-002  3.148583994000000E-002
  3.095005831000000E-002  3.038970212000000E-002  2.981043340000000E-002
  2.921670697000000E-002  2.861225213000000E-002  2.800040806000000E-002
  2.738439484000000E-002  2.676758555000000E-002  2.615385295000000E-002
  2.554810978000000E-002  2.495733022000000E-002  2.439284120000000E-002
  2.387670856000000E-002  2.337778823000000E-002  2.992812562000000E-002
  2.941470270000000E-002  2.885832251000000E-002  2.827079239000000E-002
  2.765988552000000E-002  2.703137762000000E-002  2.638999569000000E-002
  2.573979965000000E-002  2.508455011000000E-002  2.442800849000000E-002
  2.377424750000000E-002  2.312790106000000E-002  2.249429422000000E-002
  2.188651510000000E-002  2.130623847000000E-002  2.073622140000000E-002
  2.002984557000000E-002  2.779982333000000E-002  2.727648650000000E-002
  2.670524117000000E-002  2.610384727000000E-002  2.548061496000000E-002
  2.484137469000000E-002  2.419103317000000E-002  2.353389552000000E-002
  2.287405602000000E-002  2.221573103000000E-002  2.156349618000000E-002
  2.092240456000000E-002  2.029799538000000E-002  1.970521339000000E-002
  1.913588634000000E-002  1.857428519000000E-002  1.795514318000000E-002
  2.601275991000000E-002  2.548292144000000E-002  2.491526761000000E-002
  2.432023388000000E-002  2.370514822000000E-002  2.307571622000000E-002
  2.243695428000000E-002  2.179334179000000E-002  2.114922369000000E-002
  2.050918503000000E-002  1.987810242000000E-002  1.926109312000000E-002
  1.866312583000000E-002  1.809907974000000E-002  1.755419690000000E-002
  1.701878404000000E-002  1.648595500000000E-002  2.445291639000000E-002
  2.392670410000000E-002  2.336814752000000E-002  2.278448873000000E-002
  2.218249465000000E-002  2.156777295000000E-002  2.094540458000000E-002
  2.031999820000000E-002  1.969606809000000E-002  1.907850881000000E-002
  1.847229365000000E-002  1.788229173000000E-002  1.731239363000000E-002
  1.677699700000000E-002  1.625698767000000E-002  1.574467829000000E-002
  1.524035436000000E-002  2.306112749000000E-002  2.254380523000000E-002
  2.199652836000000E-002  2.142594161000000E-002  2.083861133000000E-002
  2.024007729000000E-002  1.963545424000000E-002  1.902943886000000E-002
  1.842664803000000E-002  1.783223862000000E-002  1.725110092000000E-002
  1.668762300000000E-002  1.614442965000000E-002  1.563554532000000E-002
  1.513916459000000E-002  1.464913657000000E-002  1.416702911000000E-002
  2.180431183000000E-002  2.129764872000000E-002  2.076291636000000E-002
  2.020647313000000E-002  1.963475406000000E-002  1.905325230000000E-002
  1.846707228000000E-002  1.788097392000000E-002  1.729960846000000E-002
  1.672837861000000E-002  1.617192127000000E-002  1.563401830000000E-002
  1.511599348000000E-002  1.463173329000000E-002  1.415780582000000E-002
  1.368946396000000E-002  1.322872400000000E-002  2.065766170000000E-002
  2.016277737000000E-002  1.964153634000000E-002  1.910003776000000E-002
  1.854460753000000E-002  1.798070493000000E-002  1.741338350000000E-002
  1.684744376000000E-002  1.628751644000000E-002  1.573924513000000E-002
  1.520687203000000E-002  1.469350954000000E-002  1.419923351000000E-002
  1.373801628000000E-002  1.328544582000000E-002  1.283803081000000E-002
  1.239805730000000E-002  1.960201126000000E-002  1.911977647000000E-002
  1.861277046000000E-002  1.808683607000000E-002  1.754819033000000E-002
  1.700228152000000E-002  1.645405949000000E-002  1.590835813000000E-002
  1.536973226000000E-002  1.484408425000000E-002  1.433512970000000E-002
  1.384530618000000E-002  1.337351417000000E-002  1.293399584000000E-002
  1.250176630000000E-002  1.207440163000000E-002  1.165427311000000E-002
  1.862260568000000E-002  1.815327780000000E-002  1.766107089000000E-002
  1.715118970000000E-002  1.662970237000000E-002  1.610206290000000E-002
  1.557306686000000E-002  1.504757759000000E-002  1.453002977000000E-002
  1.402660805000000E-002  1.354038910000000E-002  1.307315755000000E-002
  1.262272467000000E-002  1.220375123000000E-002  1.179092475000000E-002
  1.138274227000000E-002  1.098162210000000E-002  1.770432532000000E-002
  1.724937908000000E-002  1.677265970000000E-002  1.627933865000000E-002
  1.577539534000000E-002  1.526632485000000E-002  1.475670898000000E-002
  1.425144958000000E-002  1.375481699000000E-002  1.327331264000000E-002
  1.280926831000000E-002  1.236386158000000E-002  1.193389461000000E-002
  1.153455093000000E-002  1.114036173000000E-002  1.075059851000000E-002
  1.036761256000000E-002  1.683799769000000E-002  1.639837495000000E-002
  1.593768067000000E-002  1.546132350000000E-002  1.497521678000000E-002
  1.448492728000000E-002  1.399476539000000E-002  1.350968298000000E-002
  1.303375159000000E-002  1.257382422000000E-002  1.213139357000000E-002
  1.170708683000000E-002  1.129677728000000E-002  1.091625376000000E-002
  1.053999203000000E-002  1.016793538000000E-002  9.802359017000000E-003
  1.601839372000000E-002  1.559409393000000E-002  1.514968499000000E-002
  1.469050761000000E-002  1.422235554000000E-002  1.375089796000000E-002
  1.328011017000000E-002  1.281501552000000E-002  1.235945385000000E-002
  1.192066571000000E-002  1.149921795000000E-002  1.109525320000000E-002
  1.070379320000000E-002  1.034128036000000E-002  9.982213534999999E-003
  9.627102266000000E-003  9.278063102000000E-003  1.523870922000000E-002
  1.482999018000000E-002  1.440208405000000E-002  1.396023508000000E-002
  1.351009259000000E-002  1.305745827000000E-002  1.260591359000000E-002
  1.216057588000000E-002  1.172502850000000E-002  1.130692926000000E-002
  1.090584395000000E-002  1.052150082000000E-002  1.014814666000000E-002
  9.802910961000000E-003  9.460360007999999E-003  9.121496973000000E-003
  8.788292110000000E-003  1.449320830000000E-002  1.410035952000000E-002
  1.368914540000000E-002  1.326474678000000E-002  1.283264718000000E-002
  1.239881567000000E-002  1.196637898000000E-002  1.154057661000000E-002
  1.112471274000000E-002  1.072688594000000E-002  1.034559584000000E-002
  9.980226470000001E-003  9.624326821000000E-003  9.295714241000000E-003
  8.969069478000000E-003  8.645812048999999E-003  8.327710846000000E-003
  1.377707136000000E-002  1.340031599000000E-002  1.300594899000000E-002
  1.259909637000000E-002  1.218505358000000E-002  1.176998772000000E-002
  1.135651619000000E-002  1.095002778000000E-002  1.055353158000000E-002
  1.017558095000000E-002  9.813556544999999E-003  9.466569251000000E-003
  9.127546578000001E-003  8.814981867000001E-003  8.503700677999999E-003
  8.195483551000001E-003  7.891909587000000E-003  1.308591127000000E-002
  1.272548410000000E-002  1.234811500000000E-002  1.195890598000000E-002
  1.156294134000000E-002  1.116661838000000E-002  1.077199171000000E-002
  1.038462809000000E-002  1.000722844000000E-002  9.648804987000000E-003
  9.305579232000000E-003  8.976454638000000E-003  8.653816934999999E-003
  8.356795129000000E-003  8.060401114000000E-003  7.766715534000000E-003
  7.477086512000000E-003  1.241602533000000E-002  1.207211501000000E-002
  1.171188058000000E-002  1.134040547000000E-002  1.096253971000000E-002
  1.058493651000000E-002  1.020904317000000E-002  9.840630023999999E-003
  9.482082332000000E-003  9.142863349000000E-003  8.818009738000000E-003
  8.506282332000001E-003  8.199603413000000E-003  7.917687345000000E-003
  7.635765268000000E-003  7.356172093000000E-003  7.080042335000000E-003
  1.176407329000000E-002  1.143688657000000E-002  1.109392751000000E-002
  1.074028539000000E-002  1.038055387000000E-002  1.002166688000000E-002
  9.664423861000001E-003  9.314822160000000E-003  8.974927182000001E-003
  8.654632959000000E-003  8.347781473000001E-003  8.053046681000001E-003
  7.761970509000000E-003  7.494777230000000E-003  7.226964095000000E-003
  6.961068481000000E-003  6.697982174000000E-003  1.112703511000000E-002
  1.081675638000000E-002  1.049121623000000E-002  1.015551363000000E-002
  9.813965599000000E-003  9.473803809000000E-003  9.135149959000000E-003
  8.804246930999999E-003  8.482840421999999E-003  8.181223382000001E-003
  7.892048440000000E-003  7.613956316000000E-003  7.338188984000000E-003
  7.085396086000000E-003  6.831384522000000E-003  6.578850963000000E-003
  6.328449806000000E-003  1.050207257000000E-002  1.020893269000000E-002
  9.900981611000000E-003  9.583354209000000E-003  9.260073761000000E-003
  8.938683770000001E-003  8.618604479000000E-003  8.306337695000001E-003
  8.003313071000001E-003  7.720178931000000E-003  7.448420010000000E-003
  7.186686098000000E-003  6.926004182000000E-003  6.687344473000000E-003
  6.446880267000000E-003  6.207409779000000E-003  5.969235666000000E-003
   2.48330000000000        2.48330000000000        2.48330000000000     
   2.48330000000000        2.48330000000000        2.48330000000000     
   2.48330000000000        2.48330000000000        2.48330000000000     
   2.48330000000000        2.48330000000000        2.48330000000000     
   2.48330000000000        2.48330000000000        2.48330000000000     
   2.48330000000000        2.48330000000000        2.48330000000000     
   2.48330000000000        2.48330000000000        2.48330000000000     
   2.48330000000000        2.48330000000000        2.48330000000000     
   2.48330000000000        2.48330000000000        2.48330000000000     
   2.48330000000000        2.48330000000000        2.48330000000000     
   2.48330000000000        2.48330000000000        2.48330000000000     
   2.48330000000000        2.48330000000000        2.48330000000000     
   2.48330000000000        2.48330000000000        2.48330000000000     
   2.48330000000000        2.48330000000000        2.48330000000000     
   2.48330000000000        2.48330000000000        2.48330000000000     
   2.48330000000000        2.48330000000000        2.48330000000000     
   2.48330000000000        2.48330000000000        2.48330000000000     
   2.48330000000000        2.48330000000000        2.48330000000000     
   2.48330000000000        2.48330000000000        2.48330000000000     
   2.48330000000000        2.48330000000000        2.48330000000000     
   2.48330000000000        2.48330000000000        2.48330000000000     
   2.48330000000000        2.48330000000000        2.48330000000000     
   2.48330000000000        2.48330000000000        2.48330000000000     
   2.48330000000000        2.48330000000000        2.48330000000000     
   2.48330000000000        2.48330000000000        2.48330000000000     
   2.48330000000000        2.48330000000000        2.48330000000000     
   2.48330000000000        2.48330000000000        2.48330000000000     
   2.48330000000000        2.48330000000000        2.48330000000000     
   2.48330000000000        2.48330000000000        2.48330000000000     
   2.48330000000000        2.48330000000000        2.48330000000000     
   2.48330000000000        2.48330000000000        2.48330000000000     
   2.48330000000000        2.48330000000000        2.48330000000000     
   2.48330000000000        2.48330000000000        2.48330000000000     
   2.48330000000000        2.48330000000000        2.48330000000000     
   2.48330000000000        2.48330000000000        2.48330000000000     
   2.48330000000000        2.48330000000000        2.48330000000000     
   2.48330000000000        2.48330000000000        2.48330000000000     
   2.48330000000000        2.48330000000000        2.48330000000000     
   2.48330000000000        2.48330000000000        2.48330000000000     
   2.48330000000000        2.48330000000000        2.48330000000000     
   2.48330000000000        2.48330000000000        2.48330000000000     
   2.48330000000000        2.48330000000000        2.48330000000000     
   2.48330000000000        2.48330000000000        2.48330000000000     
   2.48330000000000        2.48330000000000        2.48330000000000     
   2.48330000000000        2.48330000000000        2.48330000000000     
   2.48330000000000        2.48330000000000        2.48330000000000     
   2.48330000000000        2.48330000000000        2.48330000000000     
   2.48330000000000        2.48330000000000        2.48330000000000     
   2.48330000000000        2.48330000000000        2.48330000000000     
   2.48330000000000        2.48330000000000        2.48330000000000     
   2.48330000000000        2.48330000000000        2.48330000000000     
   2.48330000000000        2.48330000000000        2.48330000000000     
   2.48330000000000        2.48330000000000        2.48330000000000     
   2.48330000000000        2.48330000000000        2.48330000000000     
   2.48330000000000        2.48330000000000        2.48330000000000     
   2.48330000000000        2.48330000000000        2.48330000000000     
   2.48330000000000        2.48330000000000        2.48330000000000     
   2.48330000000000        2.48330000000000        2.48330000000000     
   2.48330000000000        2.48330000000000        2.48330000000000     
   2.48330000000000        2.48330000000000        2.48330000000000     
   2.48330000000000        2.48330000000000        2.48330000000000     
   2.48330000000000        2.48330000000000        2.48330000000000     
   2.48330000000000        2.48330000000000        2.48330000000000     
   2.48330000000000        2.48330000000000        2.48330000000000     
   2.48330000000000        2.48330000000000        2.48330000000000     
   2.48330000000000        2.48330000000000        2.48330000000000     
   2.48330000000000        2.48330000000000        2.48330000000000     
   2.48330000000000        2.48330000000000        2.48330000000000     
   2.48330000000000        2.48330000000000        2.48330000000000     
   2.48330000000000        2.48330000000000        2.48330000000000     
   2.48330000000000        2.48330000000000        2.48330000000000     
   2.48330000000000        2.48330000000000        2.48330000000000     
   2.48330000000000        2.48330000000000        2.48330000000000     
   2.48330000000000        2.48330000000000        2.48330000000000     
   2.48330000000000        2.48330000000000        2.48330000000000     
   2.48330000000000        2.48330000000000        2.48330000000000     
   2.48330000000000        2.48330000000000        2.48330000000000     
   2.48330000000000        2.48330000000000        2.48330000000000     
   2.48330000000000        2.48330000000000        2.48330000000000     
   2.48330000000000        2.48330000000000        2.48330000000000     
   2.48330000000000        2.48330000000000        2.48330000000000     
   2.48330000000000        2.48330000000000        2.48330000000000     
   2.48330000000000        2.48330000000000        2.48330000000000     
   2.48330000000000        2.48330000000000        2.48330000000000     
   2.48330000000000        2.48330000000000        2.48330000000000     
   2.48330000000000        2.48330000000000        2.48330000000000     
   2.48330000000000        2.48330000000000        2.48330000000000     
   2.48330000000000        2.48330000000000        2.48330000000000     
   2.48330000000000        2.48330000000000        2.48330000000000     
   2.48330000000000        2.48330000000000        2.48330000000000     
   2.48330000000000        2.48330000000000        2.48330000000000     
   2.48330000000000        2.48330000000000        2.48330000000000     
   2.48330000000000        2.48330000000000        2.48330000000000     
   2.48330000000000        2.48330000000000        2.48330000000000     
   2.48330000000000        2.48330000000000        2.48330000000000     
   2.48330000000000        2.48330000000000        2.48330000000000     
   2.48330000000000        2.48330000000000        2.48330000000000     
   2.48330000000000        2.48330000000000        2.48330000000000     
   2.48330000000000        2.48330000000000        2.48330000000000     
   2.48330000000000        2.48330000000000        2.48330000000000     
   2.48330000000000        2.48330000000000        2.48330000000000     
   2.48330000000000        2.48330000000000        2.48330000000000     
   2.48330000000000        2.48330000000000        2.48330000000000     
   2.48330000000000        2.48330000000000        2.48330000000000     
   2.48330000000000        2.48330000000000        2.48330000000000     
   2.48330000000000        2.48330000000000        2.48330000000000     
   2.48330000000000        2.48330000000000        2.48330000000000     
   2.48330000000000        2.48330000000000        2.48330000000000     
   2.48330000000000        2.48330000000000        2.48330000000000     
   2.48330000000000        2.48330000000000        2.48330000000000     
   2.48330000000000        2.48330000000000        2.48330000000000     
   2.48330000000000        2.48330000000000        2.48330000000000     
   2.48330000000000        2.48330000000000        2.48330000000000     
   2.48330000000000        2.48330000000000        2.48330000000000     
   2.48330000000000        2.48330000000000        2.48330000000000     
   2.48330000000000        2.48330000000000        2.48330000000000     
   2.48330000000000        2.48330000000000        2.48330000000000     
   2.48330000000000        2.48330000000000        2.48330000000000     
   2.48330000000000        2.48330000000000        2.48330000000000     
  0.157614621187246       0.156322645247562       0.156044649604761     
  0.156103708831446       0.156372407406349       0.156845620699669     
  0.157613475875727       0.158662035513216       0.159977110877381     
  0.161443081565016       0.162938206623301       0.164316143878463     
  0.165553756339081       0.166746992959749       0.167923997770148     
  0.168906922252489       0.159275214753479       0.157547192089501     
  0.157078846705851       0.157102161812789       0.157379098362507     
  0.157794860872838       0.158387886248709       0.159109888801378     
  0.159908881679703       0.160640612956962       0.161196760153521     
  0.161513383179886       0.161682255288575       0.161907016552854     
  0.162156467766064       0.162376687447126       0.161216687481884     
  0.159294124801319       0.158605451524123       0.158520788865332     
  0.158802988260932       0.159257234296278       0.159835337790451     
  0.160410497941387       0.160862185159046       0.161004431730165     
  0.160768788716149       0.160255804141181       0.159645413122478     
  0.159072620552090       0.158483805391950       0.157937869094841     
  0.163603317368236       0.161282432663222       0.160185541163898     
  0.159814853299203       0.159972854851022       0.160398871313339     
  0.160933927121432       0.161360373021278       0.161491175410655     
  0.161155553761480       0.160368142167467       0.159303092244320     
  0.158131001259891       0.156981560818701       0.155816688763958     
  0.154699444972232       0.166473074100082       0.163546205488055     
  0.161880233370747       0.161076868626948       0.160959981048779     
  0.161221460729830       0.161585766655126       0.161762286259212     
  0.161549825307470       0.160814522030466       0.159625448123247     
  0.158176630583251       0.156613414528397       0.155073791741990     
  0.153526671471518       0.152059233794280       0.169940025510445     
  0.166124095149858       0.163701142002417       0.162328468756948     
  0.161797378811966       0.161751075300823       0.161831816753585     
  0.161698974704000       0.161150803034623       0.160081010243249     
  0.158595789912254       0.156882289400627       0.155059119790443     
  0.153272929606326       0.151492622208988       0.149796786021815     
  0.174200845106982       0.169218573491771       0.165793260585240     
  0.163689544650044       0.162617422622767       0.162144384771248     
  0.161846945118624       0.161354322864705       0.160477473934177     
  0.159135854533112       0.157438878979893       0.155546710078201     
  0.153557120710074       0.151620734034910       0.149688528829345     
  0.147831759566336       0.179217471900575       0.172893953232299     
  0.168195582480848       0.165168343581688       0.163450247433926     
  0.162479277605873       0.161755368420362       0.160874274211710     
  0.159674150635120       0.158104323077210       0.156246456344014     
  0.154229117387981       0.152136832378836       0.150115590161325     
  0.148087009047742       0.146113522936480       0.184806542186429     
  0.177206440884675       0.171031817622718       0.166855048826730     
  0.164368560434430       0.162825917833831       0.161630743012023     
  0.160340889993851       0.158817201409569       0.157044472758973     
  0.155060587591957       0.152955559057528       0.150803476034290     
  0.148742759869885       0.146659704153667       0.144609495983224     
  0.190691003953077       0.182088812299643       0.174356524950906     
  0.168796245039246       0.165396809941273       0.163221690786314     
  0.161522736030632       0.159817519105219       0.157977580532691     