 variables = x y z cp
 zone Nodes=     21 Elements=     20    ZONETYPE=FELineSeg DATAPACKING=POINT
    0.1867563913E-01   -0.5118735681E-01    0.1250000000E+01   -0.1176254487E+00
    0.2116544748E-01   -0.5307135331E-01    0.1250000000E+01   -0.3344190090E+00
    0.2382399063E-01   -0.5470499330E-01    0.1250000000E+01   -0.6268488963E+00
    0.2672647704E-01   -0.5584034030E-01    0.1250000000E+01   -0.5688590714E+00
    0.2981509440E-01   -0.5622937283E-01    0.1250000000E+01   -0.4658589082E+00
    0.3288615464E-01   -0.5572687194E-01    0.1250000000E+01   -0.3016329839E+00
    0.3575750783E-01   -0.5450899450E-01    0.1250000000E+01   -0.9193180305E-01
    0.3852115362E-01   -0.5305509384E-01    0.1250000000E+01    0.3497896864E-02
    0.4135540873E-01   -0.5174641471E-01    0.1250000000E+01    0.2299071696E-01
    0.4428741468E-01   -0.5067334268E-01    0.1250000000E+01    0.2518189897E-01
    0.4726075537E-01   -0.4971892712E-01    0.1250000000E+01    0.2499603977E-01
    0.5024046347E-01   -0.4878449322E-01    0.1250000000E+01    0.2921685774E-01
    0.5323637311E-01   -0.4790390951E-01    0.1250000000E+01    0.3085555480E-01
    0.5626548225E-01   -0.4714561502E-01    0.1250000000E+01    0.2854555893E-01
    0.5931038131E-01   -0.4645252380E-01    0.1250000000E+01    0.3021805642E-01
    0.6232978342E-01   -0.4565758984E-01    0.1250000000E+01    0.2854950844E-01
    0.6528364933E-01   -0.4464658938E-01    0.1250000000E+01    0.3493699522E-01
    0.6818604176E-01   -0.4349433594E-01    0.1250000000E+01    0.2950981377E-01
    0.7115080369E-01   -0.4252162239E-01    0.1250000000E+01    0.3822751015E-01
    0.7424622471E-01   -0.4218597097E-01    0.1250000000E+01    0.1373089339E-01
    0.7731810082E-01   -0.4269565651E-01    0.1250000000E+01    0.1373089339E-01
       1       2
       2       3
       3       4
       4       5
       5       6
       6       7
       7       8
       8       9
       9      10
      10      11
      11      12
      12      13
      13      14
      14      15
      15      16
      16      17
      17      18
      18      19
      19      20
      20      21
 zone Nodes=     21 Elements=     20    ZONETYPE=FELineSeg DATAPACKING=POINT
    0.1867563913E-01   -0.5118735681E-01    0.1375000000E+01   -0.1293538899E+00
    0.2116544748E-01   -0.5307135331E-01    0.1375000000E+01   -0.3476247078E+00
    0.2382399063E-01   -0.5470499330E-01    0.1375000000E+01   -0.6412663846E+00
    0.2672647704E-01   -0.5584034030E-01    0.1375000000E+01   -0.5817688690E+00
    0.2981509440E-01   -0.5622937283E-01    0.1375000000E+01   -0.4771448941E+00
    0.3288615464E-01   -0.5572687194E-01    0.1375000000E+01   -0.3115435140E+00
    0.3575750783E-01   -0.5450899450E-01    0.1375000000E+01   -0.1004290351E+00
    0.3852115362E-01   -0.5305509384E-01    0.1375000000E+01   -0.5299748512E-02
    0.4135540873E-01   -0.5174641471E-01    0.1375000000E+01    0.1457074705E-01
    0.4428741468E-01   -0.5067334268E-01    0.1375000000E+01    0.1688186839E-01
    0.4726075537E-01   -0.4971892712E-01    0.1375000000E+01    0.1686398250E-01
    0.5024046347E-01   -0.4878449322E-01    0.1375000000E+01    0.2097227749E-01
    0.5323637311E-01   -0.4790390951E-01    0.1375000000E+01    0.2279387653E-01
    0.5626548225E-01   -0.4714561502E-01    0.1375000000E+01    0.2034857324E-01
    0.5931038131E-01   -0.4645252380E-01    0.1375000000E+01    0.2221537887E-01
    0.6232978342E-01   -0.4565758984E-01    0.1375000000E+01    0.2027029888E-01
    0.6528364933E-01   -0.4464658938E-01    0.1375000000E+01    0.2737974343E-01
    0.6818604176E-01   -0.4349433594E-01    0.1375000000E+01    0.2099736544E-01
    0.7115080369E-01   -0.4252162239E-01    0.1375000000E+01    0.3007063539E-01
    0.7424622471E-01   -0.4218597097E-01    0.1375000000E+01    0.6159352619E-02
    0.7731810082E-01   -0.4269565651E-01    0.1375000000E+01    0.6159352619E-02
       1       2
       2       3
       3       4
       4       5
       5       6
       6       7
       7       8
       8       9
       9      10
      10      11
      11      12
      12      13
      13      14
      14      15
      15      16
      16      17
      17      18
      18      19
      19      20
      20      21
 zone Nodes=     21 Elements=     20    ZONETYPE=FELineSeg DATAPACKING=POINT
    0.1867563913E-01   -0.5118735681E-01    0.1500000000E+01   -0.1433479099E+00
    0.2116544748E-01   -0.5307135331E-01    0.1500000000E+01   -0.3634151273E+00
    0.2382399063E-01   -0.5470499330E-01    0.1500000000E+01   -0.6585969478E+00
    0.2672647704E-01   -0.5584034030E-01    0.1500000000E+01   -0.5973593349E+00
    0.2981509440E-01   -0.5622937283E-01    0.1500000000E+01   -0.4907236382E+00
    0.3288615464E-01   -0.5572687194E-01    0.1500000000E+01   -0.3231229976E+00
    0.3575750783E-01   -0.5450899450E-01    0.1500000000E+01   -0.1100923597E+00
    0.3852115362E-01   -0.5305509384E-01    0.1500000000E+01   -0.1441793368E-01
    0.4135540873E-01   -0.5174641471E-01    0.1500000000E+01    0.5766349837E-02
    0.4428741468E-01   -0.5067334268E-01    0.1500000000E+01    0.7743718338E-02
    0.4726075537E-01   -0.4971892712E-01    0.1500000000E+01    0.7140815283E-02
    0.5024046347E-01   -0.4878449322E-01    0.1500000000E+01    0.1201379996E-01
    0.5323637311E-01   -0.4790390951E-01    0.1500000000E+01    0.1361225318E-01
    0.5626548225E-01   -0.4714561502E-01    0.1500000000E+01    0.1127731229E-01
    0.5931038131E-01   -0.4645252380E-01    0.1500000000E+01    0.1313099000E-01
    0.6232978342E-01   -0.4565758984E-01    0.1500000000E+01    0.1112186658E-01
    0.6528364933E-01   -0.4464658938E-01    0.1500000000E+01    0.1846579491E-01
    0.6818604176E-01   -0.4349433594E-01    0.1500000000E+01    0.1217991600E-01
    0.7115080369E-01   -0.4252162239E-01    0.1500000000E+01    0.2117726487E-01
    0.7424622471E-01   -0.4218597097E-01    0.1500000000E+01   -0.2408199237E-02
    0.7731810082E-01   -0.4269565651E-01    0.1500000000E+01   -0.2408199237E-02
       1       2
       2       3
       3       4
       4       5
       5       6
       6       7
       7       8
       8       9
       9      10
      10      11
      11      12
      12      13
      13      14
      14      15
      15      16
      16      17
      17      18
      18      19
      19      20
      20      21
 zone Nodes=     21 Elements=     20    ZONETYPE=FELineSeg DATAPACKING=POINT
    0.1867563913E-01   -0.5118735681E-01    0.1650000000E+01   -0.1656143947E+00
    0.2116544748E-01   -0.5307135331E-01    0.1650000000E+01   -0.3891694726E+00
    0.2382399063E-01   -0.5470499330E-01    0.1650000000E+01   -0.6883161711E+00
    0.2672647704E-01   -0.5584034030E-01    0.1650000000E+01   -0.6262922313E+00
    0.2981509440E-01   -0.5622937283E-01    0.1650000000E+01   -0.5184758828E+00
    0.3288615464E-01   -0.5572687194E-01    0.1650000000E+01   -0.3448671639E+00
    0.3575750783E-01   -0.5450899450E-01    0.1650000000E+01   -0.1263120006E+00
    0.3852115362E-01   -0.5305509384E-01    0.1650000000E+01   -0.3108601997E-01
    0.4135540873E-01   -0.5174641471E-01    0.1650000000E+01   -0.6827785415E-02
    0.4428741468E-01   -0.5067334268E-01    0.1650000000E+01   -0.6100559429E-02
    0.4726075537E-01   -0.4971892712E-01    0.1650000000E+01   -0.9684899465E-02
    0.5024046347E-01   -0.4878449322E-01    0.1650000000E+01   -0.2259153929E-02
    0.5323637311E-01   -0.4790390951E-01    0.1650000000E+01   -0.1980981234E-03
    0.5626548225E-01   -0.4714561502E-01    0.1650000000E+01   -0.2590002042E-02
    0.5931038131E-01   -0.4645252380E-01    0.1650000000E+01   -0.2256929471E-03
    0.6232978342E-01   -0.4565758984E-01    0.1650000000E+01   -0.4285088121E-02
    0.6528364933E-01   -0.4464658938E-01    0.1650000000E+01    0.2865115157E-02
    0.6818604176E-01   -0.4349433594E-01    0.1650000000E+01   -0.1743475960E-02
    0.7115080369E-01   -0.4252162239E-01    0.1650000000E+01    0.6781387243E-02
    0.7424622471E-01   -0.4218597097E-01    0.1650000000E+01   -0.2233813852E-01
    0.7731810082E-01   -0.4269565651E-01    0.1650000000E+01   -0.2233813852E-01
       1       2
       2       3
       3       4
       4       5
       5       6
       6       7
       7       8
       8       9
       9      10
      10      11
      11      12
      12      13
      13      14
      14      15
      15      16
      16      17
      17      18
      18      19
      19      20
      20      21
 zone Nodes=     21 Elements=     20    ZONETYPE=FELineSeg DATAPACKING=POINT
    0.1867563913E-01   -0.5118735681E-01    0.1750000000E+01   -0.1805385143E+00
    0.2116544748E-01   -0.5307135331E-01    0.1750000000E+01   -0.4058703581E+00
    0.2382399063E-01   -0.5470499330E-01    0.1750000000E+01   -0.7062420991E+00
    0.2672647704E-01   -0.5584034030E-01    0.1750000000E+01   -0.6417611643E+00
    0.2981509440E-01   -0.5622937283E-01    0.1750000000E+01   -0.5310760330E+00
    0.3288615464E-01   -0.5572687194E-01    0.1750000000E+01   -0.3562238888E+00
    0.3575750783E-01   -0.5450899450E-01    0.1750000000E+01   -0.1373543782E+00
    0.3852115362E-01   -0.5305509384E-01    0.1750000000E+01   -0.4084520440E-01
    0.4135540873E-01   -0.5174641471E-01    0.1750000000E+01   -0.1817489192E-01
    0.4428741468E-01   -0.5067334268E-01    0.1750000000E+01   -0.1779893178E-01
    0.4726075537E-01   -0.4971892712E-01    0.1750000000E+01   -0.1946990060E-01
    0.5024046347E-01   -0.4878449322E-01    0.1750000000E+01   -0.1335311495E-01
    0.5323637311E-01   -0.4790390951E-01    0.1750000000E+01   -0.1142167813E-01
    0.5626548225E-01   -0.4714561502E-01    0.1750000000E+01   -0.1337737191E-01
    0.5931038131E-01   -0.4645252380E-01    0.1750000000E+01   -0.1154177966E-01
    0.6232978342E-01   -0.4565758984E-01    0.1750000000E+01   -0.1565603411E-01
    0.6528364933E-01   -0.4464658938E-01    0.1750000000E+01   -0.9889256524E-02
    0.6818604176E-01   -0.4349433594E-01    0.1750000000E+01   -0.1324697419E-01
    0.7115080369E-01   -0.4252162239E-01    0.1750000000E+01   -0.6238686815E-02
    0.7424622471E-01   -0.4218597097E-01    0.1750000000E+01   -0.3482554502E-01
    0.7731810082E-01   -0.4269565651E-01    0.1750000000E+01   -0.3482554502E-01
       1       2
       2       3
       3       4
       4       5
       5       6
       6       7
       7       8
       8       9
       9      10
      10      11
      11      12
      12      13
      13      14
      14      15
      15      16
      16      17
      17      18
      18      19
      19      20
      20      21
 zone Nodes=     21 Elements=     20    ZONETYPE=FELineSeg DATAPACKING=POINT
    0.1867563913E-01   -0.5118735681E-01    0.1875000000E+01   -0.2029743767E+00
    0.2116544748E-01   -0.5307135331E-01    0.1875000000E+01   -0.4311206294E+00
    0.2382399063E-01   -0.5470499330E-01    0.1875000000E+01   -0.7336727356E+00
    0.2672647704E-01   -0.5584034030E-01    0.1875000000E+01   -0.6657181235E+00
    0.2981509440E-01   -0.5622937283E-01    0.1875000000E+01   -0.5507673688E+00
    0.3288615464E-01   -0.5572687194E-01    0.1875000000E+01   -0.3741285283E+00
    0.3575750783E-01   -0.5450899450E-01    0.1875000000E+01   -0.1539037078E+00
    0.3852115362E-01   -0.5305509384E-01    0.1875000000E+01   -0.5607125528E-01
    0.4135540873E-01   -0.5174641471E-01    0.1875000000E+01   -0.3581005376E-01
    0.4428741468E-01   -0.5067334268E-01    0.1875000000E+01   -0.3598352604E-01
    0.4726075537E-01   -0.4971892712E-01    0.1875000000E+01   -0.3505555279E-01
    0.5024046347E-01   -0.4878449322E-01    0.1875000000E+01   -0.3056259915E-01
    0.5323637311E-01   -0.4790390951E-01    0.1875000000E+01   -0.2885339230E-01
    0.5626548225E-01   -0.4714561502E-01    0.1875000000E+01   -0.3031423780E-01
    0.5931038131E-01   -0.4645252380E-01    0.1875000000E+01   -0.2960694372E-01
    0.6232978342E-01   -0.4565758984E-01    0.1875000000E+01   -0.3323061947E-01
    0.6528364933E-01   -0.4464658938E-01    0.1875000000E+01   -0.2766154069E-01
    0.6818604176E-01   -0.4349433594E-01    0.1875000000E+01   -0.3063323040E-01
    0.7115080369E-01   -0.4252162239E-01    0.1875000000E+01   -0.2340476193E-01
    0.7424622471E-01   -0.4218597097E-01    0.1875000000E+01   -0.5227727914E-01
    0.7731810082E-01   -0.4269565651E-01    0.1875000000E+01   -0.5227727914E-01
       1       2
       2       3
       3       4
       4       5
       5       6
       6       7
       7       8
       8       9
       9      10
      10      11
      11      12
      12      13
      13      14
      14      15
      15      16
      16      17
      17      18
      18      19
      19      20
      20      21
 zone Nodes=     21 Elements=     20    ZONETYPE=FELineSeg DATAPACKING=POINT
   -0.2532312371E-01    0.2335883651E-01    0.2000000000E+01    0.3281380101E-01
   -0.2474324332E-01    0.2144621481E-01    0.2000000000E+01    0.4381568920E+00
   -0.2406090151E-01    0.1923604999E-01    0.2000000000E+01    0.6416171314E+00
   -0.2373226986E-01    0.1660046987E-01    0.2000000000E+01    0.3269674256E+00
   -0.2360969416E-01    0.1356997974E-01    0.2000000000E+01    0.7117535178E+00
   -0.2283827337E-01    0.1024013851E-01    0.2000000000E+01    0.8759413020E+00
   -0.2121083356E-01    0.6768310916E-02    0.2000000000E+01    0.9337221568E+00
   -0.1942159101E-01    0.2920956478E-02    0.2000000000E+01    0.9493361875E+00
   -0.1791764925E-01   -0.1465746172E-02    0.2000000000E+01    0.9978571656E+00
   -0.1623327159E-01   -0.6171588065E-02    0.2000000000E+01    0.1010806469E+01
   -0.1393935238E-01   -0.1095976697E-01    0.2000000000E+01    0.9896306183E+00
   -0.1127422325E-01   -0.1583351518E-01    0.2000000000E+01    0.9666953341E+00
   -0.8496338162E-02   -0.2082876741E-01    0.2000000000E+01    0.9034316715E+00
   -0.5297904912E-02   -0.2564413024E-01    0.2000000000E+01    0.8118881969E+00
   -0.1789838138E-02   -0.3020567594E-01    0.2000000000E+01    0.7868025415E+00
    0.1683968899E-02   -0.3463503053E-01    0.2000000000E+01    0.5742008300E+00
    0.5404748377E-02   -0.3856916505E-01    0.2000000000E+01    0.5297160816E+00
    0.9076461549E-02   -0.4215319241E-01    0.2000000000E+01    0.4658611529E+00
    0.1243509470E-01   -0.4556460901E-01    0.2000000000E+01    0.2090037006E+00
    0.1562669786E-01   -0.4859888448E-01    0.2000000000E+01    0.3310572031E-01
    0.1867563913E-01   -0.5118735681E-01    0.2000000000E+01    0.3310572031E-01
       1       2
       2       3
       3       4
       4       5
       5       6
       6       7
       7       8
       8       9
       9      10
      10      11
      11      12
      12      13
      13      14
      14      15
      15      16
      16      17
      17      18
      18      19
      19      20
      20      21
 zone Nodes=     21 Elements=     20    ZONETYPE=FELineSeg DATAPACKING=POINT
   -0.2532312371E-01    0.2335883651E-01    0.2125000000E+01    0.1447370623E-01
   -0.2474324332E-01    0.2144621481E-01    0.2125000000E+01    0.4313625683E+00
   -0.2406090151E-01    0.1923604999E-01    0.2125000000E+01    0.6403207689E+00
   -0.2373226986E-01    0.1660046987E-01    0.2125000000E+01    0.3261257603E+00
   -0.2360969416E-01    0.1356997974E-01    0.2125000000E+01    0.7135056498E+00
   -0.2283827337E-01    0.1024013851E-01    0.2125000000E+01    0.8781991084E+00
   -0.2121083356E-01    0.6768310916E-02    0.2125000000E+01    0.9339763673E+00
   -0.1942159101E-01    0.2920956478E-02    0.2125000000E+01    0.9505977543E+00
   -0.1791764925E-01   -0.1465746172E-02    0.2125000000E+01    0.9984450735E+00
   -0.1623327159E-01   -0.6171588065E-02    0.2125000000E+01    0.1009173765E+01
   -0.1393935238E-01   -0.1095976697E-01    0.2125000000E+01    0.9860107359E+00
   -0.1127422325E-01   -0.1583351518E-01    0.2125000000E+01    0.9614641139E+00
   -0.8496338162E-02   -0.2082876741E-01    0.2125000000E+01    0.8946909281E+00
   -0.5297904912E-02   -0.2564413024E-01    0.2125000000E+01    0.8010247725E+00
   -0.1789838138E-02   -0.3020567594E-01    0.2125000000E+01    0.7753482260E+00
    0.1683968899E-02   -0.3463503053E-01    0.2125000000E+01    0.5558681202E+00
    0.5404748377E-02   -0.3856916505E-01    0.2125000000E+01    0.5112718373E+00
    0.9076461549E-02   -0.4215319241E-01    0.2125000000E+01    0.4462062092E+00
    0.1243509470E-01   -0.4556460901E-01    0.2125000000E+01    0.1827544695E+00
    0.1562669786E-01   -0.4859888448E-01    0.2125000000E+01    0.2442133556E-02
    0.1867563913E-01   -0.5118735681E-01    0.2125000000E+01    0.2442133556E-02
       1       2
       2       3
       3       4
       4       5
       5       6
       6       7
       7       8
       8       9
       9      10
      10      11
      11      12
      12      13
      13      14
      14      15
      15      16
      16      17
      17      18
      18      19
      19      20
      20      21
 zone Nodes=     21 Elements=     20    ZONETYPE=FELineSeg DATAPACKING=POINT
   -0.2532312371E-01    0.2335883651E-01    0.2250000000E+01    0.1191443165E-01
   -0.2474324332E-01    0.2144621481E-01    0.2250000000E+01    0.4326714106E+00
   -0.2406090151E-01    0.1923604999E-01    0.2250000000E+01    0.6433892878E+00
   -0.2373226986E-01    0.1660046987E-01    0.2250000000E+01    0.3349790938E+00
   -0.2360969416E-01    0.1356997974E-01    0.2250000000E+01    0.7225580981E+00
   -0.2283827337E-01    0.1024013851E-01    0.2250000000E+01    0.8841634557E+00
   -0.2121083356E-01    0.6768310916E-02    0.2250000000E+01    0.9343039922E+00
   -0.1942159101E-01    0.2920956478E-02    0.2250000000E+01    0.9521509087E+00
   -0.1791764925E-01   -0.1465746172E-02    0.2250000000E+01    0.9984129746E+00
   -0.1623327159E-01   -0.6171588065E-02    0.2250000000E+01    0.1005367162E+01
   -0.1393935238E-01   -0.1095976697E-01    0.2250000000E+01    0.9793544112E+00
   -0.1127422325E-01   -0.1583351518E-01    0.2250000000E+01    0.9525872444E+00
   -0.8496338162E-02   -0.2082876741E-01    0.2250000000E+01    0.8809968017E+00
   -0.5297904912E-02   -0.2564413024E-01    0.2250000000E+01    0.7847679969E+00
   -0.1789838138E-02   -0.3020567594E-01    0.2250000000E+01    0.7585771054E+00
    0.1683968899E-02   -0.3463503053E-01    0.2250000000E+01    0.5298992101E+00
    0.5404748377E-02   -0.3856916505E-01    0.2250000000E+01    0.4854495098E+00
    0.9076461549E-02   -0.4215319241E-01    0.2250000000E+01    0.4191061549E+00
    0.1243509470E-01   -0.4556460901E-01    0.2250000000E+01    0.1470809130E+00
    0.1562669786E-01   -0.4859888448E-01    0.2250000000E+01   -0.3877597816E-01
    0.1867563913E-01   -0.5118735681E-01    0.2250000000E+01   -0.3877597816E-01
       1       2
       2       3
       3       4
       4       5
       5       6
       6       7
       7       8
       8       9
       9      10
      10      11
      11      12
      12      13
      13      14
      14      15
      15      16
      16      17
      17      18
      18      19
      19      20
      20      21
 zone Nodes=     21 Elements=     20    ZONETYPE=FELineSeg DATAPACKING=POINT
   -0.2532312371E-01    0.2335883651E-01    0.2375000000E+01   -0.3972748924E-01
   -0.2474324332E-01    0.2144621481E-01    0.2375000000E+01    0.4101584394E+00
   -0.2406090151E-01    0.1923604999E-01    0.2375000000E+01    0.6328024556E+00
   -0.2373226986E-01    0.1660046987E-01    0.2375000000E+01    0.3298405762E+00
   -0.2360969416E-01    0.1356997974E-01    0.2375000000E+01    0.7205810518E+00
   -0.2283827337E-01    0.1024013851E-01    0.2375000000E+01    0.8817956751E+00
   -0.2121083356E-01    0.6768310916E-02    0.2375000000E+01    0.9263870871E+00
   -0.1942159101E-01    0.2920956478E-02    0.2375000000E+01    0.9454451558E+00
   -0.1791764925E-01   -0.1465746172E-02    0.2375000000E+01    0.9892801428E+00
   -0.1623327159E-01   -0.6171588065E-02    0.2375000000E+01    0.9906597554E+00
   -0.1393935238E-01   -0.1095976697E-01    0.2375000000E+01    0.9605681627E+00
   -0.1127422325E-01   -0.1583351518E-01    0.2375000000E+01    0.9307167152E+00
   -0.8496338162E-02   -0.2082876741E-01    0.2375000000E+01    0.8525116957E+00
   -0.5297904912E-02   -0.2564413024E-01    0.2375000000E+01    0.7536491688E+00
   -0.1789838138E-02   -0.3020567594E-01    0.2375000000E+01    0.7278889848E+00
    0.1683968899E-02   -0.3463503053E-01    0.2375000000E+01    0.4872485745E+00
    0.5404748377E-02   -0.3856916505E-01    0.2375000000E+01    0.4441701672E+00
    0.9076461549E-02   -0.4215319241E-01    0.2375000000E+01    0.3776211359E+00
    0.1243509470E-01   -0.4556460901E-01    0.2375000000E+01    0.9540828085E-01
    0.1562669786E-01   -0.4859888448E-01    0.2375000000E+01   -0.9637407813E-01
    0.1867563913E-01   -0.5118735681E-01    0.2375000000E+01   -0.9637407813E-01
       1       2
       2       3
       3       4
       4       5
       5       6
       6       7
       7       8
       8       9
       9      10
      10      11
      11      12
      12      13
      13      14
      14      15
      15      16
      16      17
      17      18
      18      19
      19      20
      20      21
 zone Nodes=     21 Elements=     20    ZONETYPE=FELineSeg DATAPACKING=POINT
   -0.2532312371E-01    0.2335883651E-01    0.2475000000E+01   -0.1111295062E-01
   -0.2474324332E-01    0.2144621481E-01    0.2475000000E+01    0.3731713514E+00
   -0.2406090151E-01    0.1923604999E-01    0.2475000000E+01    0.5241433281E+00
   -0.2373226986E-01    0.1660046987E-01    0.2475000000E+01    0.2643579715E+00
   -0.2360969416E-01    0.1356997974E-01    0.2475000000E+01    0.5952629326E+00
   -0.2283827337E-01    0.1024013851E-01    0.2475000000E+01    0.6814648146E+00
   -0.2121083356E-01    0.6768310916E-02    0.2475000000E+01    0.6566956614E+00
   -0.1942159101E-01    0.2920956478E-02    0.2475000000E+01    0.6512238577E+00
   -0.1791764925E-01   -0.1465746172E-02    0.2475000000E+01    0.6642360038E+00
   -0.1623327159E-01   -0.6171588065E-02    0.2475000000E+01    0.6353715770E+00
   -0.1393935238E-01   -0.1095976697E-01    0.2475000000E+01    0.5952064467E+00
   -0.1127422325E-01   -0.1583351518E-01    0.2475000000E+01    0.5649678460E+00
   -0.8496338162E-02   -0.2082876741E-01    0.2475000000E+01    0.4885816823E+00
   -0.5297904912E-02   -0.2564413024E-01    0.2475000000E+01    0.4146832325E+00
   -0.1789838138E-02   -0.3020567594E-01    0.2475000000E+01    0.4282201802E+00
    0.1683968899E-02   -0.3463503053E-01    0.2475000000E+01    0.1997959041E+00
    0.5404748377E-02   -0.3856916505E-01    0.2475000000E+01    0.2030342758E+00
    0.9076461549E-02   -0.4215319241E-01    0.2475000000E+01    0.1936294288E+00
    0.1243509470E-01   -0.4556460901E-01    0.2475000000E+01   -0.3247194736E-01
    0.1562669786E-01   -0.4859888448E-01    0.2475000000E+01   -0.1679511430E+00
    0.1867563913E-01   -0.5118735681E-01    0.2475000000E+01   -0.1679511430E+00
       1       2
       2       3
       3       4
       4       5
       5       6
       6       7
       7       8
       8       9
       9      10
      10      11
      11      12
      12      13
      13      14
      14      15
      15      16
      16      17
      17      18
      18      19
      19      20
      20      21
 zone Nodes=     21 Elements=     20    ZONETYPE=FELineSeg DATAPACKING=POINT
   -0.2532312371E-01    0.2335883651E-01    0.1250000000E+01   -0.2981883675E-01
   -0.2474324332E-01    0.2144621481E-01    0.1250000000E+01    0.3886498607E+00
   -0.2406090151E-01    0.1923604999E-01    0.1250000000E+01    0.6007996513E+00
   -0.2373226986E-01    0.1660046987E-01    0.1250000000E+01    0.2634417892E+00
   -0.2360969416E-01    0.1356997974E-01    0.1250000000E+01    0.6559750529E+00
   -0.2283827337E-01    0.1024013851E-01    0.1250000000E+01    0.8404947440E+00
   -0.2121083356E-01    0.6768310916E-02    0.1250000000E+01    0.9214999482E+00
   -0.1942159101E-01    0.2920956478E-02    0.1250000000E+01    0.9335552393E+00
   -0.1791764925E-01   -0.1465746172E-02    0.1250000000E+01    0.9885115517E+00
   -0.1623327159E-01   -0.6171588065E-02    0.1250000000E+01    0.1012792067E+01
   -0.1393935238E-01   -0.1095976697E-01    0.1250000000E+01    0.1000385357E+01
   -0.1127422325E-01   -0.1583351518E-01    0.1250000000E+01    0.9835609698E+00
   -0.8496338162E-02   -0.2082876741E-01    0.1250000000E+01    0.9335348169E+00
   -0.5297904912E-02   -0.2564413024E-01    0.1250000000E+01    0.8488281541E+00
   -0.1789838138E-02   -0.3020567594E-01    0.1250000000E+01    0.8241823104E+00
    0.1683968899E-02   -0.3463503053E-01    0.1250000000E+01    0.6370490877E+00
    0.5404748377E-02   -0.3856916505E-01    0.1250000000E+01    0.5909884365E+00
    0.9076461549E-02   -0.4215319241E-01    0.1250000000E+01    0.5298437911E+00
    0.1243509470E-01   -0.4556460901E-01    0.1250000000E+01    0.2938226005E+00
    0.1562669786E-01   -0.4859888448E-01    0.1250000000E+01    0.1305212433E+00
    0.1867563913E-01   -0.5118735681E-01    0.1250000000E+01    0.1305212433E+00
       1       2
       2       3
       3       4
       4       5
       5       6
       6       7
       7       8
       8       9
       9      10
      10      11
      11      12
      12      13
      13      14
      14      15
      15      16
      16      17
      17      18
      18      19
      19      20
      20      21
 zone Nodes=     21 Elements=     20    ZONETYPE=FELineSeg DATAPACKING=POINT
   -0.2532312371E-01    0.2335883651E-01    0.1375000000E+01   -0.2455886390E-01
   -0.2474324332E-01    0.2144621481E-01    0.1375000000E+01    0.3935903657E+00
   -0.2406090151E-01    0.1923604999E-01    0.1375000000E+01    0.6052539400E+00
   -0.2373226986E-01    0.1660046987E-01    0.1375000000E+01    0.2697569805E+00
   -0.2360969416E-01    0.1356997974E-01    0.1375000000E+01    0.6620150438E+00
   -0.2283827337E-01    0.1024013851E-01    0.1375000000E+01    0.8443483104E+00
   -0.2121083356E-01    0.6768310916E-02    0.1375000000E+01    0.9228790751E+00
   -0.1942159101E-01    0.2920956478E-02    0.1375000000E+01    0.9353791041E+00
   -0.1791764925E-01   -0.1465746172E-02    0.1375000000E+01    0.9896784780E+00
   -0.1623327159E-01   -0.6171588065E-02    0.1375000000E+01    0.1012767158E+01
   -0.1393935238E-01   -0.1095976697E-01    0.1375000000E+01    0.9994111851E+00
   -0.1127422325E-01   -0.1583351518E-01    0.1375000000E+01    0.9819129082E+00
   -0.8496338162E-02   -0.2082876741E-01    0.1375000000E+01    0.9304764921E+00
   -0.5297904912E-02   -0.2564413024E-01    0.1375000000E+01    0.8449981100E+00
   -0.1789838138E-02   -0.3020567594E-01    0.1375000000E+01    0.8203301110E+00
    0.1683968899E-02   -0.3463503053E-01    0.1375000000E+01    0.6304181599E+00
    0.5404748377E-02   -0.3856916505E-01    0.1375000000E+01    0.5845566928E+00
    0.9076461549E-02   -0.4215319241E-01    0.1375000000E+01    0.5231347941E+00
    0.1243509470E-01   -0.4556460901E-01    0.1375000000E+01    0.2849665922E+00
    0.1562669786E-01   -0.4859888448E-01    0.1375000000E+01    0.1203869703E+00
    0.1867563913E-01   -0.5118735681E-01    0.1375000000E+01    0.1203869703E+00
       1       2
       2       3
       3       4
       4       5
       5       6
       6       7
       7       8
       8       9
       9      10
      10      11
      11      12
      12      13
      13      14
      14      15
      15      16
      16      17
      17      18
      18      19
      19      20
      20      21
 zone Nodes=     21 Elements=     20    ZONETYPE=FELineSeg DATAPACKING=POINT
   -0.2532312371E-01    0.2335883651E-01    0.1500000000E+01   -0.1303280696E-01
   -0.2474324332E-01    0.2144621481E-01    0.1500000000E+01    0.4019695634E+00
   -0.2406090151E-01    0.1923604999E-01    0.1500000000E+01    0.6115382477E+00
   -0.2373226986E-01    0.1660046987E-01    0.1500000000E+01    0.2791957857E+00
   -0.2360969416E-01    0.1356997974E-01    0.1500000000E+01    0.6705467647E+00
   -0.2283827337E-01    0.1024013851E-01    0.1500000000E+01    0.8496581457E+00
   -0.2121083356E-01    0.6768310916E-02    0.1500000000E+01    0.9248278787E+00
   -0.1942159101E-01    0.2920956478E-02    0.1500000000E+01    0.9378018805E+00
   -0.1791764925E-01   -0.1465746172E-02    0.1500000000E+01    0.9912017828E+00
   -0.1623327159E-01   -0.6171588065E-02    0.1500000000E+01    0.1012790153E+01
   -0.1393935238E-01   -0.1095976697E-01    0.1500000000E+01    0.9982675957E+00
   -0.1127422325E-01   -0.1583351518E-01    0.1500000000E+01    0.9799610842E+00
   -0.8496338162E-02   -0.2082876741E-01    0.1500000000E+01    0.9268230815E+00
   -0.5297904912E-02   -0.2564413024E-01    0.1500000000E+01    0.8404456187E+00
   -0.1789838138E-02   -0.3020567594E-01    0.1500000000E+01    0.8157526429E+00
    0.1683968899E-02   -0.3463503053E-01    0.1500000000E+01    0.6225347295E+00
    0.5404748377E-02   -0.3856916505E-01    0.1500000000E+01    0.5769115882E+00
    0.9076461549E-02   -0.4215319241E-01    0.1500000000E+01    0.5151658013E+00
    0.1243509470E-01   -0.4556460901E-01    0.1500000000E+01    0.2744181770E+00
    0.1562669786E-01   -0.4859888448E-01    0.1500000000E+01    0.1083101223E+00
    0.1867563913E-01   -0.5118735681E-01    0.1500000000E+01    0.1083101223E+00
       1       2
       2       3
       3       4
       4       5
       5       6