variables = "z/b" "Cl"
#Generated by GetData Graph Digitizer 2.25.0.32 on September 30 2021, 15:13
#from file 'E:\04_IceWing\Exp\Straight\Spanload.tif'
#
#Line #1
zone t = "Exp"
 1.79271708683473e-001    5.71127886182722e-001
 3.50140056022409e-001    5.63135988858820e-001
 5.07002801120448e-001    5.52279668929719e-001
 6.58263305322129e-001    5.15983794647803e-001
 8.48739495798319e-001    4.43075535298865e-001
