variables = N Reb Retau f DR PS
zone t = "Reb=5300"
  0.00000000       5300.69043       180.098618       3.74689251E-02   0.0000000000       0.00000000
  0.249945745      5301.15039       174.686234       3.47477794E-02   7.26240873E-02   6.75917417E-02
  0.499989808      5300.10791       168.272888       3.22558768E-02  0.126821637      0.106392421
  0.999986410      5300.07227       168.616119       3.23880352E-02  0.123244047       4.15255278E-02
  1.99997282       5300.07227       168.431503       3.23171467E-02  0.125163019     -0.201711059
  3.99990225       5300.12939       167.261917       3.18692029E-02  0.137289047      -1.17016482	
zone t = "Reb=17000"
  0.00000000       17000.8301       495.293030       2.71602720E-02  0.0 0.0
  0.24997079425394531        17001.986222768192        481.11629411799379        2.5624227977045347E-002   5.7969535311174103E-002   5.5807747711815868E-002
  0.49994056266946607        17002.021109496862        452.64672602093719        2.2681284344693010E-002  0.16616177275229471       0.15751467558444582
  0.99987964690379139        17002.046248907936        411.52594618102762        1.8747442753989992E-002  0.31078266142928879       0.27619442618597295
   1.9997607603508136        17002.033780298527        396.90901959351169        1.7439344835688493E-002  0.35887262109324181       0.22051937573226771
   3.9995435538759443        17001.940117417005        376.59144756175982        1.5699792761077472E-002  0.42282424729108148      -0.13059788038078213
zone t = "Reb=44000"
  0.00000000       44000.377460796568       1136.5902154636028       2.1352316590427287E-002  0.0 0.0
  0.24999565756235878        44000.764282300246        1087.9136235205794        1.9562230354577721E-002   8.3835691938573653E-002   8.2771353633620981E-002
  0.49999109116585172        44000.783991373944        1013.6303905562136        1.6981982736876351E-002  0.20467726932779706       0.20041992182891516
  0.99998138283448423        44000.819170533330        892.25291782959380        1.3158440112923591E-002  0.38374648684150059       0.36671713769151792
   1.9999616605239228        44000.843484643083        808.56461528454304        1.0805812758230060E-002  0.49392785028888497       0.42581056661039923
   3.9999251751794547        44000.823088422861        755.77765299399141        9.4409667934122806E-003  0.55784812606025680       0.28537861244364843
zone t = "Reb=82500"
  0.00000000       82499.284467968697       1979.3207325153785       1.8419674954340964E-002  0.0 0.0
  0.24999792141912211        82500.685937392816        1861.1132136876608        1.6284725583938772E-002  0.11590591993036481       0.11524787847117862     
  0.49999564892326398        82500.717933909007        1723.5749413719795        1.3966734107464809E-002  0.24174915452706569       0.23911699175284354     
  0.99999113588684319        82500.731295817721        1498.2928076306184        1.0554259581106805E-002  0.42701162711776663       0.41648298113657273     
   2                         82500.758114077209        1316.8551317235381        8.1528621748649527E-003  0.557382950835212         0.515267246965272
   3.9999612007995746        82500.800241270961        1221.8239497009663        7.0186069730010037E-003  0.61896140999234295       0.45050349663192901     
zone t = "Reb=133000"
  0.00000000       133000.62640452597       3020.1582058023159       1.6500685703443308E-002  0.0 0.0
  0.24999878547154220        133000.64613227852        2820.4250909185075        1.4390358578633078E-002  0.13435664910289047       0.13390436699124791     
  0.49999753726463692        133000.65509083320        2586.2950800420476        1.2100367639153101E-002  0.27210967447355949       0.27030054639256290
  0.99999590294757779        133000.54491020468        2275.2027517940624        9.3644730979654481E-003  0.43668576237252776       0.42944923206386010
   1.9999903519028717        133000.64160155415        1882.8919620283230        6.4134735675765624E-003  0.61420136130795622       0.58525530320465380
   3.9999810883361993        133000.62881579436        1699.3876327041698        5.2242926448431495E-003  0.68573582329880201       0.56995155749350512
zone t = "Reb=5300, Davis2019"
0	5300	180.29	3.7029E-02	0.0000E+00	0.0000E+00
0.5	5300	169.95	3.2903E-02	1.1141E-01	9.1033E-02
1	5300	166.93	3.1744E-02	1.4271E-01	6.1187E-02
2	5300	166.35	3.1524E-02	1.4866E-01	-1.7745E-01
3	5300	166.35	3.1524E-02	1.4866E-01	-5.8508E-01
zone t = "Reb=11700, Davis2019"
0	11700	360.58	3.0393E-02	0.0000E+00	0.0000E+00
0.5	11700	330.05	2.5464E-02	1.6217E-01	1.5092E-01
1	11700	302.40	2.1377E-02	2.9664E-01	2.5165E-01
2	11700	295.67	2.0436E-02	3.2760E-01	1.4762E-01
zone t = "Reb=19000, Davis2019"				
0	19000	549.52	2.6768E-02	0.0000E+00	0.0000E+00
0.5	19000	500.24	2.2182E-02	1.7131E-01	1.6345E-01
1	19000	455.29	1.8374E-02	3.1356E-01	2.8210E-01
2	19000	442.79	1.7380E-02	3.5072E-01	2.2488E-01
zone t = "Reb=7500, Kikuyama1983"
0.0000	7527.2051	249.6057	3.5188E-02	0.0000E+00	0.0000E+00
0.5000	7530.0181	231.3238	3.0199E-02	1.4176E-01	1.2667E-01
1.0000	7482.8473	207.8430	2.4688E-02	2.9839E-01	2.3762E-01
1.5000	7537.1834	190.6046	2.0464E-02	4.1842E-01	2.8269E-01
zone t = "Reb=10000, Kikuyama1983"			
0.0000	10007.2670	320.4155	3.2805E-02	0.0000E+00	0.0000E+00
0.5000	9944.0711	290.8930	2.7383E-02	1.6528E-01	1.5302E-01
1.0000	10016.6194	264.9281	2.2385E-02	3.1763E-01	2.6894E-01
1.5000	10022.7457	233.9226	1.7431E-02	4.6866E-01	3.5917E-01
2.0000	10095.8680	213.0428	1.4249E-02	5.6564E-01	3.7240E-01
zone t = "Reb=15000, Kikuyama1983"					
0.0000	15031.9850	455.0729	2.9328E-02	0.0000E+00	0.0000E+00
0.5000	15037.3473	423.2026	2.5346E-02	1.3578E-01	1.2671E-01
1.0000	15049.1000	360.9747	1.8411E-02	3.7223E-01	3.3597E-01
1.5000	14855.3400	315.5315	1.4437E-02	5.0774E-01	4.2511E-01
zone t = "Reb=20000, Kikuyama1983"
0.0000	19715.6899	576.3154	2.7343E-02	0.0000E+00	0.0000E+00
0.5000	19857.8420	534.0265	2.3143E-02	1.5362E-01	1.4625E-01
1.0000	20009.8531	452.2983	1.6350E-02	4.0205E-01	3.7281E-01
1.5000	19889.5703	385.8484	1.2043E-02	5.5956E-01	4.9336E-01
zone t = "Reb=5000, Orlandi1997"	
0	5000	171.8465886	3.7800E-02	0.0000E+00	0.0000E+00
0.5	5000	157.3686953	3.1699E-02	1.6140E-01	1.4024E-01
1	5000	156.4653516	3.1336E-02	1.7100E-01	8.6344E-02
2	5000	156.0590333	3.1174E-02	1.7530E-01	-1.6332E-01
zone t = "Reb=133000, fitting"
0.1 	1 1 1	-0.0692   1
0.2 	1 1 1	 0.0799   1
0.3 	1 1 1	 0.1684   1
0.4 	1 1 1	 0.2320   1
0.5 	1 1 1	 0.2818   1
0.6 	1 1 1	 0.3229   1
0.7 	1 1 1	 0.3580   1
0.8 	1 1 1	 0.3887   1
0.9 	1 1 1	 0.4160   1
1.0 	1 1 1	 0.4406   1
1.1 	1 1 1	 0.4631   1
1.2 	1 1 1	 0.4838   1
1.3 	1 1 1	 0.5030   1
1.4 	1 1 1	 0.5210   1
1.5 	1 1 1	 0.5378   1
1.6 	1 1 1	 0.5538   1
1.7 	1 1 1	 0.5689   1
1.8 	1 1 1	 0.5833   1
1.9 	1 1 1	 0.5970   1
2.0 	1 1 1	 0.6102   1
2.1 	1 1 1	 0.6229   1
2.2 	1 1 1	 0.6351   1
2.3 	1 1 1	 0.6469   1
2.4 	1 1 1	 0.6584   1
2.5 	1 1 1	 0.6696   1
2.6 	1 1 1	 0.6804   1
2.7 	1 1 1	 0.6910   1
2.8 	1 1 1	 0.7014   1
2.9 	1 1 1	 0.7116   1
3.0 	1 1 1	 0.7216   1
3.1 	1 1 1	 0.7314   1
3.2 	1 1 1	 0.7412   1
3.3 	1 1 1	 0.7508   1
3.4 	1 1 1	 0.7605   1
3.5 	1 1 1	 0.7701   1
3.6 	1 1 1	 0.7797   1
3.7 	1 1 1	 0.7893   1
3.8 	1 1 1	 0.7991   1
3.9 	1 1 1	 0.8091   1
4.0 	1 1 1	 0.8194   1